
Host: vcv066093.vpn.uci.edu

Timers On : Wed Nov  3 08:22:27 2021
Timers Off: Wed Nov  3 08:22:34 2021

Wall Time:        7.09 seconds

                                                       Time (seconds)
Module                                       User      System        Wall        Calls

--------------------------------------------------------------------------------------

**************************************************************************************

Host: vcv066093.vpn.uci.edu

Timers On : Wed Nov  3 08:22:37 2021
Timers Off: Wed Nov  3 08:22:43 2021

Wall Time:        5.50 seconds

                                                       Time (seconds)
Module                                       User      System        Wall        Calls

--------------------------------------------------------------------------------------

**************************************************************************************

Host: vcv065005.vpn.uci.edu

Timers On : Mon Nov 15 00:20:05 2021
Timers Off: Mon Nov 15 00:20:07 2021

Wall Time:        1.40 seconds

                                                       Time (seconds)
Module                                       User      System        Wall        Calls

--------------------------------------------------------------------------------------

**************************************************************************************

Host: vcv065005.vpn.uci.edu

Timers On : Mon Nov 15 00:24:57 2021
Timers Off: Mon Nov 15 00:24:58 2021

Wall Time:        1.08 seconds

                                                       Time (seconds)
Module                                       User      System        Wall        Calls

--------------------------------------------------------------------------------------

**************************************************************************************

Host: vcv065005.vpn.uci.edu

Timers On : Mon Nov 15 00:26:51 2021
Timers Off: Mon Nov 15 00:26:52 2021

Wall Time:        1.04 seconds

                                                       Time (seconds)
Module                                       User      System        Wall        Calls

--------------------------------------------------------------------------------------

**************************************************************************************

Host: vcv065005.vpn.uci.edu

Timers On : Mon Nov 15 00:27:16 2021
Timers Off: Mon Nov 15 00:27:17 2021

Wall Time:        0.52 seconds

                                                       Time (seconds)
Module                                       User      System        Wall        Calls

--------------------------------------------------------------------------------------

**************************************************************************************

Host: vcv065005.vpn.uci.edu

Timers On : Mon Nov 15 00:27:26 2021
Timers Off: Mon Nov 15 00:27:27 2021

Wall Time:        1.14 seconds

                                                       Time (seconds)
Module                                       User      System        Wall        Calls

--------------------------------------------------------------------------------------

**************************************************************************************

Host: vcv065005.vpn.uci.edu

Timers On : Mon Nov 15 00:33:05 2021
Timers Off: Mon Nov 15 00:33:06 2021

Wall Time:        1.14 seconds

                                                       Time (seconds)
Module                                       User      System        Wall        Calls

--------------------------------------------------------------------------------------

**************************************************************************************

Host: vcv065005.vpn.uci.edu

Timers On : Mon Nov 15 00:33:39 2021
Timers Off: Mon Nov 15 00:33:40 2021

Wall Time:        1.07 seconds

                                                       Time (seconds)
Module                                       User      System        Wall        Calls

--------------------------------------------------------------------------------------

**************************************************************************************

Host: vcv065005.vpn.uci.edu

Timers On : Mon Nov 15 00:33:52 2021
Timers Off: Mon Nov 15 00:33:53 2021

Wall Time:        0.98 seconds

                                                       Time (seconds)
Module                                       User      System        Wall        Calls

--------------------------------------------------------------------------------------

**************************************************************************************

Host: vcv065005.vpn.uci.edu

Timers On : Mon Nov 15 00:34:28 2021
Timers Off: Mon Nov 15 00:34:30 2021

Wall Time:        1.43 seconds

                                                       Time (seconds)
Module                                       User      System        Wall        Calls

--------------------------------------------------------------------------------------

**************************************************************************************

Host: vcv065060.vpn.uci.edu

Timers On : Tue Nov 16 08:47:20 2021
Timers Off: Tue Nov 16 08:47:22 2021

Wall Time:        1.74 seconds

                                                       Time (seconds)
Module                                       User      System        Wall        Calls

--------------------------------------------------------------------------------------

**************************************************************************************

Host: vcv065060.vpn.uci.edu

Timers On : Tue Nov 16 08:50:39 2021
Timers Off: Tue Nov 16 08:50:40 2021

Wall Time:        1.44 seconds

                                                       Time (seconds)
Module                                       User      System        Wall        Calls

--------------------------------------------------------------------------------------

**************************************************************************************

Host: vcv065060.vpn.uci.edu

Timers On : Tue Nov 16 09:02:32 2021
Timers Off: Tue Nov 16 09:02:33 2021

Wall Time:        1.08 seconds

                                                       Time (seconds)
Module                                       User      System        Wall        Calls

--------------------------------------------------------------------------------------

**************************************************************************************

Host: vcv065060.vpn.uci.edu

Timers On : Tue Nov 16 09:02:48 2021
Timers Off: Tue Nov 16 09:02:49 2021

Wall Time:        0.78 seconds

                                                       Time (seconds)
Module                                       User      System        Wall        Calls

--------------------------------------------------------------------------------------

**************************************************************************************

Host: vcv065060.vpn.uci.edu

Timers On : Tue Nov 16 09:03:08 2021
Timers Off: Tue Nov 16 09:03:09 2021

Wall Time:        0.95 seconds

                                                       Time (seconds)
Module                                       User      System        Wall        Calls

--------------------------------------------------------------------------------------

**************************************************************************************

Host: vcv065060.vpn.uci.edu

Timers On : Tue Nov 16 09:03:29 2021
Timers Off: Tue Nov 16 09:03:30 2021

Wall Time:        0.70 seconds

                                                       Time (seconds)
Module                                       User      System        Wall        Calls

--------------------------------------------------------------------------------------

**************************************************************************************

Host: vcv065060.vpn.uci.edu

Timers On : Tue Nov 16 09:07:00 2021
Timers Off: Tue Nov 16 09:07:01 2021

Wall Time:        1.02 seconds

                                                       Time (seconds)
Module                                       User      System        Wall        Calls

--------------------------------------------------------------------------------------

**************************************************************************************

Host: vcv065060.vpn.uci.edu

Timers On : Tue Nov 16 09:07:13 2021
Timers Off: Tue Nov 16 09:07:14 2021

Wall Time:        0.98 seconds

                                                       Time (seconds)
Module                                       User      System        Wall        Calls

--------------------------------------------------------------------------------------

**************************************************************************************

Host: vcv065060.vpn.uci.edu

Timers On : Tue Nov 16 09:07:30 2021
Timers Off: Tue Nov 16 09:07:30 2021

Wall Time:        0.73 seconds

                                                       Time (seconds)
Module                                       User      System        Wall        Calls

--------------------------------------------------------------------------------------

**************************************************************************************

Host: vcv065060.vpn.uci.edu

Timers On : Tue Nov 16 09:08:33 2021
Timers Off: Tue Nov 16 09:08:34 2021

Wall Time:        1.15 seconds

                                                       Time (seconds)
Module                                       User      System        Wall        Calls

--------------------------------------------------------------------------------------

**************************************************************************************

Host: vcv065060.vpn.uci.edu

Timers On : Tue Nov 16 09:09:04 2021
Timers Off: Tue Nov 16 09:09:05 2021

Wall Time:        0.72 seconds

                                                       Time (seconds)
Module                                       User      System        Wall        Calls

--------------------------------------------------------------------------------------

**************************************************************************************

Host: vcv065060.vpn.uci.edu

Timers On : Tue Nov 16 09:10:47 2021
Timers Off: Tue Nov 16 09:10:48 2021

Wall Time:        0.73 seconds

                                                       Time (seconds)
Module                                       User      System        Wall        Calls

--------------------------------------------------------------------------------------

**************************************************************************************

Host: vcv065060.vpn.uci.edu

Timers On : Tue Nov 16 09:13:08 2021
Timers Off: Tue Nov 16 09:13:09 2021

Wall Time:        0.85 seconds

                                                       Time (seconds)
Module                                       User      System        Wall        Calls

--------------------------------------------------------------------------------------

**************************************************************************************

Host: vcv065060.vpn.uci.edu

Timers On : Tue Nov 16 09:13:15 2021
Timers Off: Tue Nov 16 09:13:16 2021

Wall Time:        0.71 seconds

                                                       Time (seconds)
Module                                       User      System        Wall        Calls

--------------------------------------------------------------------------------------

**************************************************************************************

Host: vcv065060.vpn.uci.edu

Timers On : Tue Nov 16 09:14:14 2021
Timers Off: Tue Nov 16 09:14:15 2021

Wall Time:        0.70 seconds

                                                       Time (seconds)
Module                                       User      System        Wall        Calls

--------------------------------------------------------------------------------------

**************************************************************************************

Host: vcv065060.vpn.uci.edu

Timers On : Tue Nov 16 09:15:06 2021
Timers Off: Tue Nov 16 09:15:07 2021

Wall Time:        0.70 seconds

                                                       Time (seconds)
Module                                       User      System        Wall        Calls

--------------------------------------------------------------------------------------

**************************************************************************************

Host: vcv065060.vpn.uci.edu

Timers On : Tue Nov 16 09:16:36 2021
Timers Off: Tue Nov 16 09:16:36 2021

Wall Time:        0.51 seconds

                                                       Time (seconds)
Module                                       User      System        Wall        Calls

--------------------------------------------------------------------------------------

**************************************************************************************

Host: vcv065060.vpn.uci.edu

Timers On : Tue Nov 16 09:16:50 2021
Timers Off: Tue Nov 16 09:16:51 2021

Wall Time:        0.53 seconds

                                                       Time (seconds)
Module                                       User      System        Wall        Calls

--------------------------------------------------------------------------------------

**************************************************************************************

Host: macaw.local

Timers On : Tue Nov 16 13:13:31 2021
Timers Off: Tue Nov 16 13:14:02 2021

Wall Time:       31.01 seconds

                                                       Time (seconds)
Module                                       User      System        Wall        Calls

--------------------------------------------------------------------------------------

**************************************************************************************



Host: macaw.local

Timers On : Tue Nov 16 13:20:38 2021
Timers Off: Tue Nov 16 13:21:08 2021

Wall Time:       30.04 seconds

                                                       Time (seconds)
Module                                       User      System        Wall        Calls

--------------------------------------------------------------------------------------

**************************************************************************************



Host: macaw.local

Timers On : Tue Nov 16 13:21:44 2021
Timers Off: Tue Nov 16 13:22:13 2021

Wall Time:       29.02 seconds

                                                       Time (seconds)
Module                                       User      System        Wall        Calls

--------------------------------------------------------------------------------------

**************************************************************************************



Host: macaw.local

Timers On : Tue Nov 16 13:23:22 2021
Timers Off: Tue Nov 16 13:23:51 2021

Wall Time:       29.14 seconds

                                                       Time (seconds)
Module                                       User      System        Wall        Calls

--------------------------------------------------------------------------------------

**************************************************************************************


Host: macaw.local

Timers On : Tue Nov 16 13:24:34 2021
Timers Off: Tue Nov 16 13:25:05 2021

Wall Time:       31.45 seconds

                                                       Time (seconds)
Module                                       User      System        Wall        Calls

--------------------------------------------------------------------------------------

**************************************************************************************

Host: vcv070135.vpn.uci.edu

Timers On : Tue Nov 16 15:58:33 2021
Timers Off: Tue Nov 16 15:58:35 2021

Wall Time:        1.66 seconds

                                                       Time (seconds)
Module                                       User      System        Wall        Calls

--------------------------------------------------------------------------------------

**************************************************************************************

Host: vcv070135.vpn.uci.edu

Timers On : Tue Nov 16 16:00:55 2021
Timers Off: Tue Nov 16 16:01:24 2021

Wall Time:       29.17 seconds

                                                       Time (seconds)
Module                                       User      System        Wall        Calls

--------------------------------------------------------------------------------------

**************************************************************************************

Host: vcv069156.vpn.uci.edu

Timers On : Thu Nov 18 08:39:42 2021
Timers Off: Thu Nov 18 08:40:14 2021

Wall Time:       32.19 seconds

                                                       Time (seconds)
Module                                       User      System        Wall        Calls

--------------------------------------------------------------------------------------

**************************************************************************************

Host: vcv069156.vpn.uci.edu

Timers On : Thu Nov 18 08:41:24 2021
Timers Off: Thu Nov 18 08:41:53 2021

Wall Time:       29.32 seconds

                                                       Time (seconds)
Module                                       User      System        Wall        Calls

--------------------------------------------------------------------------------------

**************************************************************************************

Host: vcv069156.vpn.uci.edu

Timers On : Thu Nov 18 08:43:18 2021
Timers Off: Thu Nov 18 08:43:20 2021

Wall Time:        2.02 seconds

                                                       Time (seconds)
Module                                       User      System        Wall        Calls

--------------------------------------------------------------------------------------

**************************************************************************************

Host: vcv069156.vpn.uci.edu

Timers On : Thu Nov 18 08:42:51 2021
Timers Off: Thu Nov 18 08:43:21 2021

Wall Time:       29.51 seconds

                                                       Time (seconds)
Module                                       User      System        Wall        Calls

--------------------------------------------------------------------------------------

**************************************************************************************

Host: vcv069156.vpn.uci.edu

Timers On : Thu Nov 18 08:45:47 2021
Timers Off: Thu Nov 18 08:46:18 2021

Wall Time:       30.29 seconds

                                                       Time (seconds)
Module                                       User      System        Wall        Calls

--------------------------------------------------------------------------------------

**************************************************************************************

Host: vcv069156.vpn.uci.edu

Timers On : Thu Nov 18 08:48:01 2021
Timers Off: Thu Nov 18 08:48:04 2021

Wall Time:        2.06 seconds

                                                       Time (seconds)
Module                                       User      System        Wall        Calls

--------------------------------------------------------------------------------------

**************************************************************************************

Host: vcv069156.vpn.uci.edu

Timers On : Thu Nov 18 08:47:33 2021
Timers Off: Thu Nov 18 08:48:21 2021

Wall Time:       47.43 seconds

                                                       Time (seconds)
Module                                       User      System        Wall        Calls

--------------------------------------------------------------------------------------

**************************************************************************************


Host: vcv069156.vpn.uci.edu

Timers On : Thu Nov 18 11:12:07 2021
Timers Off: Thu Nov 18 11:12:39 2021

Wall Time:       31.22 seconds

                                                       Time (seconds)
Module                                       User      System        Wall        Calls

--------------------------------------------------------------------------------------

**************************************************************************************

Host: vcv069156.vpn.uci.edu

Timers On : Thu Nov 18 11:13:57 2021
Timers Off: Thu Nov 18 11:14:27 2021

Wall Time:       30.52 seconds

                                                       Time (seconds)
Module                                       User      System        Wall        Calls

--------------------------------------------------------------------------------------

**************************************************************************************

Host: vcv069156.vpn.uci.edu

Timers On : Thu Nov 18 13:50:31 2021
Timers Off: Thu Nov 18 13:51:06 2021

Wall Time:       35.30 seconds

                                                       Time (seconds)
Module                                       User      System        Wall        Calls

--------------------------------------------------------------------------------------

**************************************************************************************

Host: vcv069156.vpn.uci.edu

Host: vcv069156.vpn.uci.edu

Timers On : Thu Nov 18 13:53:04 2021
Timers Off: Thu Nov 18 13:53:35 2021

Wall Time:       31.59 seconds

                                                       Time (seconds)
Module                                       User      System        Wall        Calls

--------------------------------------------------------------------------------------

**************************************************************************************

Host: vcv069156.vpn.uci.edu

Timers On : Thu Nov 18 13:54:32 2021
Timers Off: Thu Nov 18 13:54:34 2021

Wall Time:        2.40 seconds

                                                       Time (seconds)
Module                                       User      System        Wall        Calls

--------------------------------------------------------------------------------------

**************************************************************************************

Host: vcv069156.vpn.uci.edu

Timers On : Thu Nov 18 13:54:04 2021
Timers Off: Thu Nov 18 13:54:34 2021

Wall Time:       30.75 seconds

                                                       Time (seconds)
Module                                       User      System        Wall        Calls

--------------------------------------------------------------------------------------

**************************************************************************************

Host: vcv069156.vpn.uci.edu

Timers On : Thu Nov 18 13:55:36 2021
Timers Off: Thu Nov 18 13:55:38 2021

Wall Time:        2.20 seconds

                                                       Time (seconds)
Module                                       User      System        Wall        Calls

--------------------------------------------------------------------------------------

**************************************************************************************

Host: vcv069156.vpn.uci.edu

Timers On : Thu Nov 18 13:55:08 2021
Timers Off: Thu Nov 18 13:55:38 2021

Wall Time:       30.27 seconds

                                                       Time (seconds)
Module                                       User      System        Wall        Calls

--------------------------------------------------------------------------------------

**************************************************************************************

Host: vcv069107.vpn.uci.edu

Timers On : Sat Jan 15 08:08:24 2022
Timers Off: Sat Jan 15 08:08:54 2022

Wall Time:       30.11 seconds

                                                       Time (seconds)
Module                                       User      System        Wall        Calls

--------------------------------------------------------------------------------------

**************************************************************************************

Host: vcv069107.vpn.uci.edu

Timers On : Sat Jan 15 17:14:17 2022
Timers Off: Sat Jan 15 17:15:29 2022

Wall Time:       72.50 seconds

                                                       Time (seconds)
Module                                       User      System        Wall        Calls

--------------------------------------------------------------------------------------

**************************************************************************************

Host: vcv069107.vpn.uci.edu

Timers On : Sat Jan 15 17:50:54 2022
Timers Off: Sat Jan 15 17:52:04 2022

Wall Time:       69.75 seconds

                                                       Time (seconds)
Module                                       User      System        Wall        Calls

--------------------------------------------------------------------------------------

**************************************************************************************

Host: vcv069107.vpn.uci.edu

Timers On : Sat Jan 15 18:50:26 2022
Timers Off: Sat Jan 15 18:51:30 2022

Wall Time:       64.01 seconds

                                                       Time (seconds)
Module                                       User      System        Wall        Calls

--------------------------------------------------------------------------------------

**************************************************************************************

Host: vcv069107.vpn.uci.edu

Timers On : Sat Jan 15 19:05:14 2022
Timers Off: Sat Jan 15 19:06:28 2022

Wall Time:       74.20 seconds

                                                       Time (seconds)
Module                                       User      System        Wall        Calls

--------------------------------------------------------------------------------------

**************************************************************************************

Host: vcv069107.vpn.uci.edu

Timers On : Sat Jan 15 19:24:32 2022
Timers Off: Sat Jan 15 19:24:32 2022

Wall Time:        0.51 seconds

                                                       Time (seconds)
Module                                       User      System        Wall        Calls

--------------------------------------------------------------------------------------

**************************************************************************************

Host: vcv069107.vpn.uci.edu

Timers On : Sat Jan 15 19:26:02 2022
Timers Off: Sat Jan 15 19:26:03 2022

Wall Time:        1.15 seconds

                                                       Time (seconds)
Module                                       User      System        Wall        Calls

--------------------------------------------------------------------------------------

**************************************************************************************

Host: vcv069107.vpn.uci.edu

Timers On : Sat Jan 15 19:27:03 2022
Timers Off: Sat Jan 15 19:27:04 2022

Wall Time:        1.11 seconds

                                                       Time (seconds)
Module                                       User      System        Wall        Calls

--------------------------------------------------------------------------------------

**************************************************************************************

Host: vcv069107.vpn.uci.edu

Timers On : Sat Jan 15 19:27:22 2022
Timers Off: Sat Jan 15 19:27:23 2022

Wall Time:        1.06 seconds

                                                       Time (seconds)
Module                                       User      System        Wall        Calls

--------------------------------------------------------------------------------------

**************************************************************************************

Host: vcv069107.vpn.uci.edu

Timers On : Sat Jan 15 19:28:42 2022
Timers Off: Sat Jan 15 19:28:43 2022

Wall Time:        0.81 seconds

                                                       Time (seconds)
Module                                       User      System        Wall        Calls

--------------------------------------------------------------------------------------

**************************************************************************************

Host: vcv069107.vpn.uci.edu

Timers On : Sat Jan 15 19:29:19 2022
Timers Off: Sat Jan 15 19:29:49 2022

Wall Time:       30.87 seconds

                                                       Time (seconds)
Module                                       User      System        Wall        Calls

--------------------------------------------------------------------------------------

**************************************************************************************

Host: vcv069107.vpn.uci.edu

Timers On : Sat Jan 15 19:29:52 2022
Timers Off: Sat Jan 15 19:29:53 2022

Wall Time:        0.82 seconds

                                                       Time (seconds)
Module                                       User      System        Wall        Calls

--------------------------------------------------------------------------------------

**************************************************************************************

Host: vcv069107.vpn.uci.edu

Timers On : Sat Jan 15 19:30:23 2022
Timers Off: Sat Jan 15 19:30:24 2022

Wall Time:        0.84 seconds

                                                       Time (seconds)
Module                                       User      System        Wall        Calls

--------------------------------------------------------------------------------------

**************************************************************************************

Host: vcv069107.vpn.uci.edu

Timers On : Sat Jan 15 19:31:13 2022
Timers Off: Sat Jan 15 19:31:36 2022

Wall Time:       23.21 seconds

                                                       Time (seconds)
Module                                       User      System        Wall        Calls

--------------------------------------------------------------------------------------

**************************************************************************************

Host: vcv069107.vpn.uci.edu

Timers On : Sat Jan 15 19:31:55 2022
Timers Off: Sat Jan 15 19:31:56 2022

Wall Time:        0.97 seconds

                                                       Time (seconds)
Module                                       User      System        Wall        Calls

--------------------------------------------------------------------------------------

**************************************************************************************

Host: vcv069107.vpn.uci.edu

Timers On : Sat Jan 15 19:32:50 2022
Timers Off: Sat Jan 15 19:33:06 2022

Wall Time:       16.19 seconds

                                                       Time (seconds)
Module                                       User      System        Wall        Calls

--------------------------------------------------------------------------------------

**************************************************************************************

Host: vcv069107.vpn.uci.edu

Timers On : Sat Jan 15 19:34:22 2022
Timers Off: Sat Jan 15 19:34:35 2022

Wall Time:       13.53 seconds

                                                       Time (seconds)
Module                                       User      System        Wall        Calls

--------------------------------------------------------------------------------------

**************************************************************************************

Host: vcv069107.vpn.uci.edu

Timers On : Sat Jan 15 19:34:39 2022
Timers Off: Sat Jan 15 19:34:39 2022

Wall Time:        0.54 seconds

                                                       Time (seconds)
Module                                       User      System        Wall        Calls

--------------------------------------------------------------------------------------

**************************************************************************************

Host: vcv069107.vpn.uci.edu

Timers On : Sat Jan 15 19:35:25 2022
Timers Off: Sat Jan 15 19:35:26 2022

Wall Time:        0.91 seconds

                                                       Time (seconds)
Module                                       User      System        Wall        Calls

--------------------------------------------------------------------------------------

**************************************************************************************

Host: vcv069107.vpn.uci.edu

Timers On : Sat Jan 15 19:36:18 2022
Timers Off: Sat Jan 15 19:36:19 2022

Wall Time:        1.07 seconds

                                                       Time (seconds)
Module                                       User      System        Wall        Calls

--------------------------------------------------------------------------------------

**************************************************************************************

Host: vcv069107.vpn.uci.edu

Timers On : Sat Jan 15 19:36:48 2022
Timers Off: Sat Jan 15 19:37:13 2022

Wall Time:       25.40 seconds

                                                       Time (seconds)
Module                                       User      System        Wall        Calls

--------------------------------------------------------------------------------------

**************************************************************************************

Host: vcv069107.vpn.uci.edu

Timers On : Sat Jan 15 19:37:37 2022
Timers Off: Sat Jan 15 19:37:39 2022

Wall Time:        1.30 seconds

                                                       Time (seconds)
Module                                       User      System        Wall        Calls

--------------------------------------------------------------------------------------

**************************************************************************************

Host: vcv069107.vpn.uci.edu

Timers On : Sat Jan 15 19:42:09 2022
Timers Off: Sat Jan 15 19:42:10 2022

Wall Time:        1.01 seconds

                                                       Time (seconds)
Module                                       User      System        Wall        Calls

--------------------------------------------------------------------------------------

**************************************************************************************

Host: vcv069107.vpn.uci.edu

Timers On : Sat Jan 15 19:42:14 2022
Timers Off: Sat Jan 15 19:42:15 2022

Wall Time:        1.38 seconds

                                                       Time (seconds)
Module                                       User      System        Wall        Calls

--------------------------------------------------------------------------------------

**************************************************************************************

Host: macaw

Timers On : Sun Jan 16 00:13:11 2022
Timers Off: Sun Jan 16 00:13:25 2022

Wall Time:       14.73 seconds

                                                       Time (seconds)
Module                                       User      System        Wall        Calls

--------------------------------------------------------------------------------------

**************************************************************************************

Host: macaw

Timers On : Sun Jan 16 00:16:15 2022
Timers Off: Sun Jan 16 00:16:16 2022

Wall Time:        1.31 seconds

                                                       Time (seconds)
Module                                       User      System        Wall        Calls

--------------------------------------------------------------------------------------

**************************************************************************************

Host: macaw

Timers On : Sun Jan 16 00:17:47 2022
Timers Off: Sun Jan 16 00:17:48 2022

Wall Time:        1.31 seconds

                                                       Time (seconds)
Module                                       User      System        Wall        Calls

--------------------------------------------------------------------------------------

**************************************************************************************

Host: macaw

Timers On : Sun Jan 16 00:18:15 2022
Timers Off: Sun Jan 16 00:18:16 2022

Wall Time:        0.87 seconds

                                                       Time (seconds)
Module                                       User      System        Wall        Calls

--------------------------------------------------------------------------------------

**************************************************************************************

Host: macaw

Timers On : Sun Jan 16 00:18:32 2022
Timers Off: Sun Jan 16 00:18:36 2022

Wall Time:        4.21 seconds

                                                       Time (seconds)
Module                                       User      System        Wall        Calls

--------------------------------------------------------------------------------------

**************************************************************************************

Host: macaw

Timers On : Sun Jan 16 00:19:29 2022
Timers Off: Sun Jan 16 00:19:34 2022

Wall Time:        4.44 seconds

                                                       Time (seconds)
Module                                       User      System        Wall        Calls

--------------------------------------------------------------------------------------

**************************************************************************************

Host: macaw

Timers On : Sun Jan 16 00:20:14 2022
Timers Off: Sun Jan 16 00:20:19 2022

Wall Time:        5.77 seconds

                                                       Time (seconds)
Module                                       User      System        Wall        Calls

--------------------------------------------------------------------------------------

**************************************************************************************

Host: macaw

Timers On : Sun Jan 16 00:23:15 2022
Timers Off: Sun Jan 16 00:24:11 2022

Wall Time:       56.50 seconds

                                                       Time (seconds)
Module                                       User      System        Wall        Calls

--------------------------------------------------------------------------------------

**************************************************************************************

Host: macaw

Timers On : Sun Jan 16 00:25:41 2022
Timers Off: Sun Jan 16 00:26:35 2022

Wall Time:       54.04 seconds

                                                       Time (seconds)
Module                                       User      System        Wall        Calls

--------------------------------------------------------------------------------------

**************************************************************************************

Host: macaw

Timers On : Sun Jan 16 00:26:51 2022
Timers Off: Sun Jan 16 00:27:49 2022

Wall Time:       58.03 seconds

                                                       Time (seconds)
Module                                       User      System        Wall        Calls

--------------------------------------------------------------------------------------

**************************************************************************************

Host: macaw

Timers On : Sun Jan 16 01:21:42 2022
Timers Off: Sun Jan 16 01:21:43 2022

Wall Time:        0.92 seconds

                                                       Time (seconds)
Module                                       User      System        Wall        Calls

--------------------------------------------------------------------------------------

**************************************************************************************

Host: macaw

Timers On : Sun Jan 16 01:21:52 2022
Timers Off: Sun Jan 16 01:21:53 2022

Wall Time:        0.92 seconds

                                                       Time (seconds)
Module                                       User      System        Wall        Calls

--------------------------------------------------------------------------------------

**************************************************************************************

Host: macaw

Timers On : Sun Jan 16 01:26:35 2022
Timers Off: Sun Jan 16 01:27:36 2022

Wall Time:       60.73 seconds

                                                       Time (seconds)
Module                                       User      System        Wall        Calls

--------------------------------------------------------------------------------------

**************************************************************************************

Host: macaw

Timers On : Sun Jan 16 01:56:30 2022
Timers Off: Sun Jan 16 01:56:58 2022

Wall Time:       27.35 seconds

                                                       Time (seconds)
Module                                       User      System        Wall        Calls

--------------------------------------------------------------------------------------

**************************************************************************************

Host: macaw

Timers On : Sun Jan 16 01:57:59 2022
Timers Off: Sun Jan 16 01:58:04 2022

Wall Time:        4.86 seconds

                                                       Time (seconds)
Module                                       User      System        Wall        Calls

--------------------------------------------------------------------------------------

**************************************************************************************

Host: macaw

Timers On : Sun Jan 16 01:58:22 2022
Timers Off: Sun Jan 16 01:58:23 2022

Wall Time:        0.47 seconds

                                                       Time (seconds)
Module                                       User      System        Wall        Calls

--------------------------------------------------------------------------------------

**************************************************************************************

Host: macaw

Timers On : Sun Jan 16 01:58:18 2022
Timers Off: Sun Jan 16 01:58:27 2022

Wall Time:        9.35 seconds

                                                       Time (seconds)
Module                                       User      System        Wall        Calls

--------------------------------------------------------------------------------------

**************************************************************************************

Host: macaw

Timers On : Sun Jan 16 01:58:54 2022
Timers Off: Sun Jan 16 01:59:19 2022

Wall Time:       25.41 seconds

                                                       Time (seconds)
Module                                       User      System        Wall        Calls

--------------------------------------------------------------------------------------

**************************************************************************************

Host: macaw

Timers On : Sun Jan 16 01:59:45 2022
Timers Off: Sun Jan 16 02:00:11 2022

Wall Time:       26.00 seconds

                                                       Time (seconds)
Module                                       User      System        Wall        Calls

--------------------------------------------------------------------------------------

**************************************************************************************

Host: macaw

Timers On : Sun Jan 16 01:47:32 2022
Timers Off: Sun Jan 16 02:00:26 2022

Wall Time:      774.33 seconds

                                                       Time (seconds)
Module                                       User      System        Wall        Calls

--------------------------------------------------------------------------------------

**************************************************************************************

Host: macaw

Timers On : Sun Jan 16 02:01:10 2022
Timers Off: Sun Jan 16 02:01:12 2022

Wall Time:        2.02 seconds

                                                       Time (seconds)
Module                                       User      System        Wall        Calls

--------------------------------------------------------------------------------------

**************************************************************************************




Host: macaw
Host: macaw



Timers On : Sun Jan 16 02:02:44 2022
Host: macaw
Timers On : Sun Jan 16 02:02:44 2022

Timers Off: Sun Jan 16 02:03:06 2022
Timers On : Sun Jan 16 02:02:44 2022

Wall Time:       21.16 seconds

Timers Off: Sun Jan 16 02:03:06 2022
                                                       Time (seconds)
Timers Off: Sun Jan 16 02:03:06 2022

Wall Time:       21.16 seconds


Module                                       User      System        Wall        Calls
Host: macaw

--------------------------------------------------------------------------------------


**************************************************************************************
Timers On : Sun Jan 16 02:02:44 2022

Wall Time:       21.16 seconds

Timers Off: Sun Jan 16 02:03:06 2022
                                                       Time (seconds)

Wall Time:       21.16 seconds

                                                       Time (seconds)


Host: macaw

Timers On : Sun Jan 16 02:03:28 2022
Timers Off: Sun Jan 16 02:03:50 2022

Wall Time:       21.72 seconds

                                                       Time (seconds)
Module                                       User      System        Wall        Calls


--------------------------------------------------------------------------------------
Host: macaw

**************************************************************************************

Timers On : Sun Jan 16 02:03:28 2022
Timers Off: Sun Jan 16 02:03:50 2022




Host: macaw

Timers On : Sun Jan 16 02:00:45 2022
Timers Off: Sun Jan 16 02:04:14 2022

Wall Time:      208.87 seconds

                                                       Time (seconds)
Module                                       User      System        Wall        Calls

--------------------------------------------------------------------------------------

**************************************************************************************








Host: macaw

Timers On : Sun Jan 16 16:17:34 2022
Timers Off: Sun Jan 16 16:19:21 2022

Wall Time:      106.79 seconds

                                                       Time (seconds)
Module                                       User      System        Wall        Calls

--------------------------------------------------------------------------------------

**************************************************************************************


Host: macaw

Host: macaw
Timers On : Sun Jan 16 16:21:13 2022

Timers Off: Sun Jan 16 16:21:13 2022
Timers On : Sun Jan 16 16:21:13 2022

Wall Time:        0.56 seconds

                                                       Time (seconds)
Module                                       User      System        Wall        Calls
Timers Off: Sun Jan 16 16:21:13 2022

--------------------------------------------------------------------------------------

Wall Time:        0.56 seconds


**************************************************************************************
                                                       Time (seconds)
Module                                       User      System        Wall        Calls

--------------------------------------------------------------------------------------

**************************************************************************************

Host: macaw

Timers On : Sun Jan 16 16:19:42 2022
Timers Off: Sun Jan 16 16:21:57 2022

Wall Time:      135.20 seconds

                                                       Time (seconds)
Module                                       User      System        Wall        Calls

--------------------------------------------------------------------------------------

**************************************************************************************


Host: macaw
Host: macaw


Timers On : Sun Jan 16 17:34:10 2022
Timers On : Sun Jan 16 17:34:10 2022
Timers Off: Sun Jan 16 17:34:11 2022
Timers Off: Sun Jan 16 17:34:11 2022

Wall Time:        0.66 seconds


Wall Time:        0.66 seconds

                                                       Time (seconds)
                                                       Time (seconds)
Module                                       User      System        Wall        Calls
Module                                       User      System        Wall        Calls

--------------------------------------------------------------------------------------

--------------------------------------------------------------------------------------

**************************************************************************************

**************************************************************************************


Host: macaw
Host: macaw


Timers On : Sun Jan 16 17:41:23 2022
Timers On : Sun Jan 16 17:41:23 2022
Timers Off: Sun Jan 16 17:41:24 2022
Timers Off: Sun Jan 16 17:41:24 2022

Wall Time:        0.58 seconds


Wall Time:        0.58 seconds

                                                       Time (seconds)
                                                       Time (seconds)
Module                                       User      System        Wall        Calls
Module                                       User      System        Wall        Calls

--------------------------------------------------------------------------------------

--------------------------------------------------------------------------------------

**************************************************************************************

**************************************************************************************


Host: macaw
Host: macaw


Timers On : Sun Jan 16 17:54:21 2022
Timers On : Sun Jan 16 17:54:21 2022
Timers Off: Sun Jan 16 17:54:22 2022
Timers Off: Sun Jan 16 17:54:22 2022

Wall Time:        0.56 seconds


Wall Time:        0.56 seconds

                                                       Time (seconds)
                                                       Time (seconds)
Module                                       User      System        Wall        Calls
Module                                       User      System        Wall        Calls

--------------------------------------------------------------------------------------

--------------------------------------------------------------------------------------

**************************************************************************************

**************************************************************************************


Host: macaw

Host: macaw
Timers On : Sun Jan 16 18:25:07 2022

Timers Off: Sun Jan 16 18:25:08 2022
Timers On : Sun Jan 16 18:25:07 2022

Wall Time:        0.68 seconds

Timers Off: Sun Jan 16 18:25:08 2022
                                                       Time (seconds)

Wall Time:        0.68 seconds

Module                                       User      System        Wall        Calls
                                                       Time (seconds)

--------------------------------------------------------------------------------------
Module                                       User      System        Wall        Calls

**************************************************************************************

--------------------------------------------------------------------------------------

**************************************************************************************


Host: macaw
Host: macaw


Timers On : Sun Jan 16 18:25:47 2022
Timers On : Sun Jan 16 18:25:47 2022
Timers Off: Sun Jan 16 18:25:53 2022
Timers Off: Sun Jan 16 18:25:53 2022

Wall Time:        5.41 seconds


Wall Time:        5.41 seconds

                                                       Time (seconds)
                                                       Time (seconds)
Module                                       User      System        Wall        Calls
Module                                       User      System        Wall        Calls

--------------------------------------------------------------------------------------

--------------------------------------------------------------------------------------

**************************************************************************************

**************************************************************************************

Host: macaw

Timers On : Sun Jan 16 18:25:47 2022
Timers Off: Sun Jan 16 18:25:53 2022

Wall Time:        5.42 seconds

                                                       Time (seconds)
Module                                       User      System        Wall        Calls

--------------------------------------------------------------------------------------

**************************************************************************************

Host: macaw

Timers On : Sun Jan 16 18:25:47 2022
Timers Off: Sun Jan 16 18:25:53 2022

Wall Time:        5.42 seconds

                                                       Time (seconds)
Module                                       User      System        Wall        Calls

--------------------------------------------------------------------------------------

**************************************************************************************

Host: macaw

Timers On : Sun Jan 16 18:25:53 2022
Timers Off: Sun Jan 16 18:25:53 2022

Wall Time:        0.47 seconds

                                                       Time (seconds)
Module                                       User      System        Wall        Calls

--------------------------------------------------------------------------------------

**************************************************************************************


Host: macaw
Host: macaw

Timers On : Sun Jan 16 18:28:39 2022
Timers Off: Sun Jan 16 18:28:39 2022

Wall Time:        0.52 seconds

                                                       Time (seconds)
Module                                       User      System        Wall        Calls

--------------------------------------------------------------------------------------

**************************************************************************************

Timers On : Sun Jan 16 18:28:39 2022
Timers Off: Sun Jan 16 18:28:39 2022

Wall Time:        0.52 seconds

                                                       Time (seconds)
Module                                       User      System        Wall        Calls

--------------------------------------------------------------------------------------

**************************************************************************************


Host: macaw

Host: macaw
Timers On : Sun Jan 16 18:34:26 2022

Timers Off: Sun Jan 16 18:34:26 2022
Timers On : Sun Jan 16 18:34:26 2022

Wall Time:        0.53 seconds

Timers Off: Sun Jan 16 18:34:26 2022
                                                       Time (seconds)

Wall Time:        0.53 seconds

Module                                       User      System        Wall        Calls
                                                       Time (seconds)
Module                                       User      System        Wall        Calls

--------------------------------------------------------------------------------------

--------------------------------------------------------------------------------------

**************************************************************************************

**************************************************************************************

Host: macaw

Timers On : Sun Jan 16 18:35:10 2022
Timers Off: Sun Jan 16 18:35:11 2022

Wall Time:        0.57 seconds

                                                       Time (seconds)
Module                                       User      System        Wall        Calls

--------------------------------------------------------------------------------------

**************************************************************************************


Host: macaw

Host: macaw
Timers On : Sun Jan 16 18:43:10 2022

Timers Off: Sun Jan 16 18:43:10 2022
Timers On : Sun Jan 16 18:43:10 2022

Wall Time:        0.56 seconds

Timers Off: Sun Jan 16 18:43:10 2022
                                                       Time (seconds)

Wall Time:        0.56 seconds

Module                                       User      System        Wall        Calls
                                                       Time (seconds)
Module                                       User      System        Wall        Calls

--------------------------------------------------------------------------------------

--------------------------------------------------------------------------------------

**************************************************************************************

**************************************************************************************

Host: macaw

Timers On : Sun Jan 16 18:43:54 2022
Timers Off: Sun Jan 16 18:43:55 2022

Wall Time:        0.31 seconds

                                                       Time (seconds)
Module                                       User      System        Wall        Calls

--------------------------------------------------------------------------------------

**************************************************************************************


Host: macaw
Host: macaw


Timers On : Sun Jan 16 19:03:44 2022
Timers On : Sun Jan 16 19:03:44 2022
Timers Off: Sun Jan 16 19:03:44 2022
Timers Off: Sun Jan 16 19:03:44 2022

Wall Time:        0.53 seconds


Wall Time:        0.53 seconds

                                                       Time (seconds)
                                                       Time (seconds)
Module                                       User      System        Wall        Calls
Module                                       User      System        Wall        Calls

--------------------------------------------------------------------------------------

--------------------------------------------------------------------------------------

**************************************************************************************

**************************************************************************************


Host: macaw
Host: macaw


Timers On : Sun Jan 16 19:15:22 2022
Timers On : Sun Jan 16 19:15:22 2022
Timers Off: Sun Jan 16 19:15:22 2022
Timers Off: Sun Jan 16 19:15:22 2022

Wall Time:        0.59 seconds

                                                       Time (seconds)
Module                                       User      System        Wall        Calls

Wall Time:        0.59 seconds


--------------------------------------------------------------------------------------
                                                       Time (seconds)

**************************************************************************************
Module                                       User      System        Wall        Calls

--------------------------------------------------------------------------------------

**************************************************************************************


Host: macaw

Host: macaw
Timers On : Sun Jan 16 19:23:14 2022

Timers Off: Sun Jan 16 19:23:15 2022
Timers On : Sun Jan 16 19:23:14 2022

Wall Time:        0.50 seconds

Timers Off: Sun Jan 16 19:23:15 2022
                                                       Time (seconds)

Wall Time:        0.50 seconds

Module                                       User      System        Wall        Calls
                                                       Time (seconds)
Module                                       User      System        Wall        Calls

--------------------------------------------------------------------------------------

--------------------------------------------------------------------------------------

**************************************************************************************

**************************************************************************************


Host: macaw
Host: macaw


Timers On : Sun Jan 16 19:37:01 2022
Timers On : Sun Jan 16 19:37:01 2022
Timers Off: Sun Jan 16 19:37:02 2022
Timers Off: Sun Jan 16 19:37:02 2022

Wall Time:        0.50 seconds


Wall Time:        0.50 seconds

                                                       Time (seconds)
                                                       Time (seconds)
Module                                       User      System        Wall        Calls
Module                                       User      System        Wall        Calls

--------------------------------------------------------------------------------------

**************************************************************************************

--------------------------------------------------------------------------------------

**************************************************************************************

Host: macaw

Timers On : Sun Jan 16 19:37:47 2022
Timers Off: Sun Jan 16 19:37:47 2022

Wall Time:        0.26 seconds

                                                       Time (seconds)
Module                                       User      System        Wall        Calls

--------------------------------------------------------------------------------------

**************************************************************************************

Host: macaw

Timers On : Sun Jan 16 19:43:13 2022
Timers Off: Sun Jan 16 19:43:14 2022

Wall Time:        0.55 seconds

                                                       Time (seconds)

Host: macaw
Module                                       User      System        Wall        Calls


--------------------------------------------------------------------------------------
Timers On : Sun Jan 16 19:43:13 2022

**************************************************************************************
Timers Off: Sun Jan 16 19:43:14 2022

Wall Time:        0.55 seconds

                                                       Time (seconds)
Module                                       User      System        Wall        Calls

--------------------------------------------------------------------------------------

**************************************************************************************

Host: macaw

Timers On : Sun Jan 16 19:43:59 2022
Timers Off: Sun Jan 16 19:43:59 2022

Wall Time:        0.25 seconds

                                                       Time (seconds)
Module                                       User      System        Wall        Calls

--------------------------------------------------------------------------------------

**************************************************************************************


Host: macaw
Host: macaw


Timers On : Sun Jan 16 20:35:47 2022
Timers On : Sun Jan 16 20:35:47 2022
Timers Off: Sun Jan 16 20:35:47 2022
Timers Off: Sun Jan 16 20:35:47 2022

Wall Time:        0.51 seconds

                                                       Time (seconds)
Module                                       User      System        Wall        Calls

Wall Time:        0.51 seconds


--------------------------------------------------------------------------------------
                                                       Time (seconds)

**************************************************************************************
Module                                       User      System        Wall        Calls

--------------------------------------------------------------------------------------

**************************************************************************************


Host: macaw

Timers On : Sun Jan 16 20:46:50 2022
Timers Off: Sun Jan 16 20:46:50 2022
Host: macaw

Wall Time:        0.65 seconds


                                                       Time (seconds)
Module                                       User      System        Wall        Calls
Timers On : Sun Jan 16 20:46:50 2022

--------------------------------------------------------------------------------------
Timers Off: Sun Jan 16 20:46:50 2022

**************************************************************************************

Wall Time:        0.65 seconds

                                                       Time (seconds)
Module                                       User      System        Wall        Calls

--------------------------------------------------------------------------------------

**************************************************************************************

Host: macaw

Timers On : Sun Jan 16 20:47:35 2022
Timers Off: Sun Jan 16 20:47:36 2022

Wall Time:        0.51 seconds

                                                       Time (seconds)
Module                                       User      System        Wall        Calls

--------------------------------------------------------------------------------------

**************************************************************************************

Host: macaw


Host: macaw
Timers On : Sun Jan 16 20:53:41 2022

Timers Off: Sun Jan 16 20:53:42 2022
Timers On : Sun Jan 16 20:53:41 2022

Wall Time:        0.40 seconds

Timers Off: Sun Jan 16 20:53:42 2022
                                                       Time (seconds)

Wall Time:        0.40 seconds

Module                                       User      System        Wall        Calls
                                                       Time (seconds)

--------------------------------------------------------------------------------------
Module                                       User      System        Wall        Calls

**************************************************************************************

--------------------------------------------------------------------------------------

**************************************************************************************



Host: macaw
Host: macaw


Timers On : Sun Jan 16 20:54:21 2022
Timers On : Sun Jan 16 20:54:21 2022
Timers Off: Sun Jan 16 20:54:25 2022
Timers Off: Sun Jan 16 20:54:25 2022

Wall Time:        4.04 seconds


Wall Time:        4.03 seconds


                                                       Time (seconds)
                                                       Time (seconds)
Module                                       User      System        Wall        Calls
Host: macaw

Host: macaw

Timers On : Sun Jan 16 20:54:25 2022
Timers Off: Sun Jan 16 20:54:26 2022

Wall Time:        0.29 seconds

                                                       Time (seconds)
Module                                       User      System        Wall        Calls

--------------------------------------------------------------------------------------

**************************************************************************************


Host: macaw
Host: macaw


Timers On : Sun Jan 16 20:56:49 2022
Timers On : Sun Jan 16 20:56:49 2022
Timers Off: Sun Jan 16 20:56:50 2022
Timers Off: Sun Jan 16 20:56:50 2022

Wall Time:        0.42 seconds


Wall Time:        0.42 seconds

                                                       Time (seconds)
                                                       Time (seconds)
Module                                       User      System        Wall        Calls
Module                                       User      System        Wall        Calls

--------------------------------------------------------------------------------------

--------------------------------------------------------------------------------------

**************************************************************************************

**************************************************************************************

Host: macaw

Timers On : Sun Jan 16 20:57:34 2022
Timers Off: Sun Jan 16 20:57:35 2022

Wall Time:        0.50 seconds

                                                       Time (seconds)
Module                                       User      System        Wall        Calls

--------------------------------------------------------------------------------------

**************************************************************************************


Host: macaw
Host: macaw


Timers On : Sun Jan 16 21:06:42 2022
Timers On : Sun Jan 16 21:06:42 2022
Timers Off: Sun Jan 16 21:06:43 2022
Timers Off: Sun Jan 16 21:06:43 2022

Wall Time:        0.51 seconds


Wall Time:        0.51 seconds

                                                       Time (seconds)
                                                       Time (seconds)
Module                                       User      System        Wall        Calls

--------------------------------------------------------------------------------------

**************************************************************************************
Module                                       User      System        Wall        Calls

--------------------------------------------------------------------------------------

**************************************************************************************

Host: macaw

Timers On : Sun Jan 16 21:07:26 2022
Timers Off: Sun Jan 16 21:07:27 2022

Wall Time:        0.53 seconds

                                                       Time (seconds)
Module                                       User      System        Wall        Calls

--------------------------------------------------------------------------------------

**************************************************************************************


Host: macaw
Host: macaw


Timers On : Sun Jan 16 21:12:13 2022
Timers On : Sun Jan 16 21:12:13 2022
Timers Off: Sun Jan 16 21:12:14 2022
Timers Off: Sun Jan 16 21:12:14 2022

Wall Time:        0.62 seconds


Wall Time:        0.62 seconds

                                                       Time (seconds)
                                                       Time (seconds)
Module                                       User      System        Wall        Calls
Module                                       User      System        Wall        Calls

--------------------------------------------------------------------------------------

--------------------------------------------------------------------------------------

**************************************************************************************

**************************************************************************************

Host: macaw

Timers On : Sun Jan 16 21:12:59 2022
Timers Off: Sun Jan 16 21:12:59 2022

Wall Time:        0.56 seconds

                                                       Time (seconds)
Module                                       User      System        Wall        Calls

--------------------------------------------------------------------------------------

**************************************************************************************


Host: macaw
Host: macaw


Timers On : Sun Jan 16 21:17:16 2022
Timers On : Sun Jan 16 21:17:16 2022
Timers Off: Sun Jan 16 21:17:16 2022
Timers Off: Sun Jan 16 21:17:16 2022

Wall Time:        0.50 seconds


Wall Time:        0.50 seconds

                                                       Time (seconds)
                                                       Time (seconds)
Module                                       User      System        Wall        Calls
Module                                       User      System        Wall        Calls

--------------------------------------------------------------------------------------

--------------------------------------------------------------------------------------

**************************************************************************************

**************************************************************************************

Host: macaw

Timers On : Sun Jan 16 21:18:00 2022
Timers Off: Sun Jan 16 21:18:00 2022

Wall Time:        0.58 seconds

                                                       Time (seconds)
Module                                       User      System        Wall        Calls

--------------------------------------------------------------------------------------

**************************************************************************************


Host: macaw
Host: macaw


Timers On : Sun Jan 16 21:25:12 2022
Timers On : Sun Jan 16 21:25:12 2022
Timers Off: Sun Jan 16 21:25:13 2022
Timers Off: Sun Jan 16 21:25:13 2022

Wall Time:        0.57 seconds


Wall Time:        0.57 seconds

                                                       Time (seconds)
                                                       Time (seconds)
Module                                       User      System        Wall        Calls
Module                                       User      System        Wall        Calls

--------------------------------------------------------------------------------------

--------------------------------------------------------------------------------------

**************************************************************************************

**************************************************************************************

Host: macaw

Timers On : Sun Jan 16 21:25:56 2022
Timers Off: Sun Jan 16 21:25:57 2022

Wall Time:        0.55 seconds

                                                       Time (seconds)
Module                                       User      System        Wall        Calls

--------------------------------------------------------------------------------------

**************************************************************************************


Host: macaw
Host: macaw


Timers On : Sun Jan 16 21:40:20 2022
Timers Off: Sun Jan 16 21:40:21 2022

Wall Time:        0.65 seconds

                                                       Time (seconds)
Module                                       User      System        Wall        Calls

--------------------------------------------------------------------------------------

**************************************************************************************
Timers On : Sun Jan 16 21:40:20 2022
Timers Off: Sun Jan 16 21:40:21 2022

Wall Time:        0.65 seconds

                                                       Time (seconds)
Module                                       User      System        Wall        Calls

--------------------------------------------------------------------------------------

**************************************************************************************

Host: macaw

Timers On : Sun Jan 16 21:41:06 2022
Timers Off: Sun Jan 16 21:41:06 2022

Wall Time:        0.27 seconds

                                                       Time (seconds)
Module                                       User      System        Wall        Calls

--------------------------------------------------------------------------------------

**************************************************************************************


Host: macaw

Host: macaw
Timers On : Sun Jan 16 21:45:00 2022

Timers Off: Sun Jan 16 21:45:01 2022
Timers On : Sun Jan 16 21:45:00 2022

Wall Time:        0.54 seconds

Timers Off: Sun Jan 16 21:45:01 2022
                                                       Time (seconds)

Wall Time:        0.54 seconds

Module                                       User      System        Wall        Calls
                                                       Time (seconds)

--------------------------------------------------------------------------------------
Module                                       User      System        Wall        Calls

**************************************************************************************

--------------------------------------------------------------------------------------

**************************************************************************************


Host: macaw
Host: macaw


Timers On : Sun Jan 16 21:56:28 2022
Timers On : Sun Jan 16 21:56:28 2022
Timers Off: Sun Jan 16 21:56:28 2022

Wall Time:        0.54 seconds

Timers Off: Sun Jan 16 21:56:28 2022
                                                       Time (seconds)

Wall Time:        0.54 seconds

Module                                       User      System        Wall        Calls
                                                       Time (seconds)

--------------------------------------------------------------------------------------
Module                                       User      System        Wall        Calls

**************************************************************************************

--------------------------------------------------------------------------------------

**************************************************************************************

Host: macaw

Timers On : Sun Jan 16 21:57:12 2022
Timers Off: Sun Jan 16 21:57:12 2022

Wall Time:        0.26 seconds

                                                       Time (seconds)
Module                                       User      System        Wall        Calls

--------------------------------------------------------------------------------------

**************************************************************************************


Host: macaw
Host: macaw


Timers On : Sun Jan 16 22:01:58 2022
Timers On : Sun Jan 16 22:01:58 2022
Timers Off: Sun Jan 16 22:01:59 2022
Timers Off: Sun Jan 16 22:01:59 2022

Wall Time:        0.63 seconds


Wall Time:        0.63 seconds

                                                       Time (seconds)
                                                       Time (seconds)
Module                                       User      System        Wall        Calls
Module                                       User      System        Wall        Calls

--------------------------------------------------------------------------------------

--------------------------------------------------------------------------------------

**************************************************************************************

**************************************************************************************

Host: macaw

Timers On : Sun Jan 16 22:02:43 2022
Timers Off: Sun Jan 16 22:02:44 2022

Wall Time:        0.25 seconds

                                                       Time (seconds)
Module                                       User      System        Wall        Calls

--------------------------------------------------------------------------------------

**************************************************************************************


Host: macaw
Host: macaw


Timers On : Sun Jan 16 22:13:59 2022
Timers On : Sun Jan 16 22:13:59 2022
Timers Off: Sun Jan 16 22:13:59 2022
Timers Off: Sun Jan 16 22:13:59 2022

Wall Time:        0.62 seconds


Wall Time:        0.62 seconds

                                                       Time (seconds)
                                                       Time (seconds)
Module                                       User      System        Wall        Calls
[...]

--------------------------------------------------------------------------------------

**************************************************************************************

Host: macaw.local

Timers On : Tue Mar 22 20:48:41 2022
Timers Off: Tue Mar 22 20:48:50 2022

Wall Time:        8.22 seconds

                                                       Time (seconds)
Module                                       User      System        Wall        Calls

--------------------------------------------------------------------------------------

**************************************************************************************

Host: macaw.local

Timers On : Tue Mar 22 20:49:49 2022
Timers Off: Tue Mar 22 20:49:57 2022

Wall Time:        8.12 seconds

                                                       Time (seconds)
Module                                       User      System        Wall        Calls

--------------------------------------------------------------------------------------

**************************************************************************************

Host: macaw.local

Timers On : Tue Mar 22 20:51:33 2022
Timers Off: Tue Mar 22 20:51:35 2022

Wall Time:        2.43 seconds

                                                       Time (seconds)
Module                                       User      System        Wall        Calls

--------------------------------------------------------------------------------------

**************************************************************************************

Host: macaw.local

Timers On : Tue Mar 22 20:52:28 2022
Timers Off: Tue Mar 22 20:52:35 2022

Wall Time:        7.59 seconds

                                                       Time (seconds)
Module                                       User      System        Wall        Calls

--------------------------------------------------------------------------------------

**************************************************************************************

Host: macaw.local

Timers On : Tue Mar 22 20:53:01 2022
Timers Off: Tue Mar 22 20:53:04 2022

Wall Time:        2.63 seconds

                                                       Time (seconds)
Module                                       User      System        Wall        Calls

--------------------------------------------------------------------------------------

**************************************************************************************

Host: macaw.local

Timers On : Tue Mar 22 20:53:48 2022
Timers Off: Tue Mar 22 20:53:51 2022

Wall Time:        2.64 seconds

                                                       Time (seconds)
Module                                       User      System        Wall        Calls

--------------------------------------------------------------------------------------

**************************************************************************************

Host: macaw.local

Timers On : Tue Mar 22 20:54:12 2022
Timers Off: Tue Mar 22 20:54:15 2022

Wall Time:        2.45 seconds

                                                       Time (seconds)
Module                                       User      System        Wall        Calls

--------------------------------------------------------------------------------------

**************************************************************************************

Host: macaw.local

Timers On : Tue Mar 22 20:55:10 2022
Timers Off: Tue Mar 22 20:55:17 2022

Wall Time:        7.23 seconds

                                                       Time (seconds)
Module                                       User      System        Wall        Calls

--------------------------------------------------------------------------------------

**************************************************************************************

Host: macaw.local

Timers On : Tue Mar 22 20:55:41 2022
Timers Off: Tue Mar 22 20:55:50 2022

Wall Time:        8.73 seconds

                                                       Time (seconds)
Module                                       User      System        Wall        Calls

--------------------------------------------------------------------------------------

**************************************************************************************

Host: macaw.local

Timers On : Tue Mar 22 20:58:57 2022
Timers Off: Tue Mar 22 20:58:59 2022

Wall Time:        1.83 seconds

                                                       Time (seconds)
Module                                       User      System        Wall        Calls

--------------------------------------------------------------------------------------

**************************************************************************************

Host: macaw.local

Timers On : Tue Mar 22 21:02:21 2022
Timers Off: Tue Mar 22 21:02:29 2022

Wall Time:        8.18 seconds

                                                       Time (seconds)
Module                                       User      System        Wall        Calls

--------------------------------------------------------------------------------------

**************************************************************************************

Host: macaw.local

Timers On : Tue Mar 22 21:05:45 2022
Timers Off: Tue Mar 22 21:05:58 2022

Wall Time:       12.99 seconds

                                                       Time (seconds)
Module                                       User      System        Wall        Calls

--------------------------------------------------------------------------------------

**************************************************************************************

Host: macaw.local

Timers On : Tue Mar 22 21:09:34 2022
Timers Off: Tue Mar 22 21:09:43 2022

Wall Time:        9.28 seconds

                                                       Time (seconds)
Module                                       User      System        Wall        Calls

--------------------------------------------------------------------------------------

**************************************************************************************

Host: macaw.local

Timers On : Tue Mar 22 21:10:56 2022
Timers Off: Tue Mar 22 21:11:04 2022

Wall Time:        7.86 seconds

                                                       Time (seconds)
Module                                       User      System        Wall        Calls

--------------------------------------------------------------------------------------

**************************************************************************************

Host: macaw.local

Timers On : Tue Mar 22 21:12:39 2022
Timers Off: Tue Mar 22 21:12:47 2022

Wall Time:        8.00 seconds

                                                       Time (seconds)
Module                                       User      System        Wall        Calls

--------------------------------------------------------------------------------------

**************************************************************************************

Host: macaw.local

Timers On : Tue Mar 22 21:20:08 2022
Timers Off: Tue Mar 22 21:20:15 2022

Wall Time:        7.32 seconds

                                                       Time (seconds)
Module                                       User      System        Wall        Calls

--------------------------------------------------------------------------------------

**************************************************************************************

Host: macaw.local

Timers On : Tue Mar 22 21:21:48 2022
Timers Off: Tue Mar 22 21:21:49 2022

Wall Time:        1.47 seconds

                                                       Time (seconds)
Module                                       User      System        Wall        Calls

--------------------------------------------------------------------------------------

**************************************************************************************

Host: macaw.local

Timers On : Tue Mar 22 21:23:14 2022
Timers Off: Tue Mar 22 21:23:21 2022

Wall Time:        7.05 seconds

                                                       Time (seconds)
Module                                       User      System        Wall        Calls

--------------------------------------------------------------------------------------

**************************************************************************************

Host: macaw.local

Timers On : Tue Mar 22 21:24:40 2022
Timers Off: Tue Mar 22 21:24:47 2022

Wall Time:        7.10 seconds

                                                       Time (seconds)
Module                                       User      System        Wall        Calls

--------------------------------------------------------------------------------------

**************************************************************************************

Host: macaw.local

Timers On : Tue Mar 22 21:25:46 2022
Timers Off: Tue Mar 22 21:25:53 2022

Wall Time:        7.09 seconds

                                                       Time (seconds)
Module                                       User      System        Wall        Calls

--------------------------------------------------------------------------------------

**************************************************************************************

Host: macaw.local

Timers On : Tue Mar 22 21:26:48 2022
Timers Off: Tue Mar 22 21:26:49 2022

Wall Time:        1.16 seconds

                                                       Time (seconds)
Module                                       User      System        Wall        Calls

--------------------------------------------------------------------------------------

**************************************************************************************

Host: macaw.local

Timers On : Tue Mar 22 21:27:08 2022
Timers Off: Tue Mar 22 21:27:09 2022

Wall Time:        1.19 seconds

                                                       Time (seconds)
Module                                       User      System        Wall        Calls

--------------------------------------------------------------------------------------

**************************************************************************************

Host: macaw.local

Timers On : Tue Mar 22 21:27:56 2022
Timers Off: Tue Mar 22 21:27:58 2022

Wall Time:        1.39 seconds

                                                       Time (seconds)
Module                                       User      System        Wall        Calls

--------------------------------------------------------------------------------------

**************************************************************************************

Host: macaw.local

Timers On : Tue Mar 22 21:28:06 2022
Timers Off: Tue Mar 22 21:28:12 2022

Wall Time:        6.20 seconds

                                                       Time (seconds)
Module                                       User      System        Wall        Calls

--------------------------------------------------------------------------------------

**************************************************************************************

Host: macaw.local

Timers On : Tue Mar 22 21:37:49 2022
Timers Off: Tue Mar 22 21:37:59 2022

Wall Time:        9.40 seconds

                                                       Time (seconds)
Module                                       User      System        Wall        Calls

--------------------------------------------------------------------------------------

**************************************************************************************

Host: macaw.local

Timers On : Tue Mar 22 21:38:44 2022
Timers Off: Tue Mar 22 21:38:50 2022

Wall Time:        6.45 seconds

                                                       Time (seconds)
Module                                       User      System        Wall        Calls

--------------------------------------------------------------------------------------

**************************************************************************************

Host: macaw.local

Timers On : Tue Mar 22 21:43:40 2022
Timers Off: Tue Mar 22 21:43:41 2022

Wall Time:        1.86 seconds

                                                       Time (seconds)
Module                                       User      System        Wall        Calls

--------------------------------------------------------------------------------------

**************************************************************************************

Host: macaw.local

Timers On : Tue Mar 22 21:44:50 2022
Timers Off: Tue Mar 22 21:44:55 2022

Wall Time:        5.65 seconds

                                                       Time (seconds)
Module                                       User      System        Wall        Calls

--------------------------------------------------------------------------------------

**************************************************************************************

Host: macaw.local

Timers On : Tue Mar 22 21:46:33 2022
Timers Off: Tue Mar 22 21:46:39 2022

Wall Time:        5.51 seconds

                                                       Time (seconds)
Module                                       User      System        Wall        Calls

--------------------------------------------------------------------------------------

**************************************************************************************

Host: macaw.local

Timers On : Tue Mar 22 21:52:45 2022
Timers Off: Tue Mar 22 21:52:51 2022

Wall Time:        5.82 seconds

                                                       Time (seconds)
Module                                       User      System        Wall        Calls

--------------------------------------------------------------------------------------

**************************************************************************************

Host: macaw.local

Timers On : Tue Mar 22 21:53:13 2022
Timers Off: Tue Mar 22 21:53:20 2022

Wall Time:        6.72 seconds

                                                       Time (seconds)
Module                                       User      System        Wall        Calls

--------------------------------------------------------------------------------------

**************************************************************************************

Host: macaw.local

Timers On : Tue Mar 22 21:54:10 2022
Timers Off: Tue Mar 22 21:54:17 2022

Wall Time:        6.86 seconds

                                                       Time (seconds)
Module                                       User      System        Wall        Calls

--------------------------------------------------------------------------------------

**************************************************************************************

Host: macaw.local

Timers On : Tue Mar 22 22:05:33 2022
Timers Off: Tue Mar 22 22:05:38 2022

Wall Time:        5.59 seconds

                                                       Time (seconds)
Module                                       User      System        Wall        Calls

--------------------------------------------------------------------------------------

**************************************************************************************

Host: macaw.local

Timers On : Tue Mar 22 22:11:20 2022
Timers Off: Tue Mar 22 22:11:26 2022

Wall Time:        5.80 seconds

                                                       Time (seconds)
Module                                       User      System        Wall        Calls

--------------------------------------------------------------------------------------

**************************************************************************************

Host: macaw.local

Timers On : Tue Mar 22 22:11:57 2022
Timers Off: Tue Mar 22 22:11:59 2022

Wall Time:        1.40 seconds

                                                       Time (seconds)
Module                                       User      System        Wall        Calls

--------------------------------------------------------------------------------------

**************************************************************************************

Host: macaw.local

Timers On : Tue Mar 22 22:12:50 2022
Timers Off: Tue Mar 22 22:12:51 2022

Wall Time:        1.24 seconds

                                                       Time (seconds)
Module                                       User      System        Wall        Calls

--------------------------------------------------------------------------------------

**************************************************************************************

Host: macaw.local

Timers On : Tue Mar 22 22:13:41 2022
Timers Off: Tue Mar 22 22:13:43 2022

Wall Time:        2.01 seconds

                                                       Time (seconds)
Module                                       User      System        Wall        Calls

--------------------------------------------------------------------------------------

**************************************************************************************

Host: macaw.local

Timers On : Tue Mar 22 22:14:18 2022
Timers Off: Tue Mar 22 22:15:15 2022

Wall Time:       56.85 seconds

                                                       Time (seconds)
Module                                       User      System        Wall        Calls

--------------------------------------------------------------------------------------

**************************************************************************************

Host: macaw.local

Timers On : Tue Mar 22 22:15:30 2022
Timers Off: Tue Mar 22 22:15:34 2022

Wall Time:        3.12 seconds

                                                       Time (seconds)
Module                                       User      System        Wall        Calls

--------------------------------------------------------------------------------------

**************************************************************************************

Host: macaw.local

Timers On : Tue Mar 22 22:16:45 2022
Timers Off: Tue Mar 22 22:16:48 2022

Wall Time:        2.89 seconds

                                                       Time (seconds)
Module                                       User      System        Wall        Calls

--------------------------------------------------------------------------------------

**************************************************************************************

Host: macaw.local

Timers On : Tue Mar 22 22:20:39 2022
Timers Off: Tue Mar 22 22:20:46 2022

Wall Time:        7.02 seconds

                                                       Time (seconds)
Module                                       User      System        Wall        Calls

--------------------------------------------------------------------------------------

**************************************************************************************



Host: macaw.local


Timers On : Tue Mar 22 22:22:20 2022
Timers Off: Tue Mar 22 22:22:22 2022

Wall Time:        1.85 seconds

                                                       Time (seconds)
Module                                       User      System        Wall        Calls

--------------------------------------------------------------------------------------

**************************************************************************************

Host: macaw.local

Timers On : Tue Mar 22 22:20:59 2022
Timers Off: Tue Mar 22 22:25:51 2022

Wall Time:      291.56 seconds

                                                       Time (seconds)
Module                                       User      System        Wall        Calls

--------------------------------------------------------------------------------------

**************************************************************************************
